TITLE = "Example: Duplicated Variables and Connectivity Lists"
VARIABLES = "X", "Y", "P"
ZONE T="P_1", F=FEPOINT, N=6, E=4, ET=TRIANGLE
-1.0 0.0 100
0.0 0.0 125
1.0 0.0 150
-0.5 0.8 150
0.5 0.8 175
0.0 1.6 200
1 2 4
2 5 4
3 5 2
5 6 4
ZONE T="P_2", F=FEPOINT, N=6, E=4, ET=TRIANGLE, D=(1,2,FECONNECT)
110 135 160 165 185 200
ZONE T="P_3", F=FEPOINT, N=6, E=4, ET=TRIANGLE, D=(1,2,FECONNECT)
120 145 180 175 195 200